 LAMMPS data file for 3-bead CG-DNA-model
 
          84   atoms
          82   bonds
          52   angles
 
           9   atom types
           3   bond types
           2   angle types
 
  -500.000000       500.000000        xlo xhi
  -500.000000       500.000000        ylo yhi
  -500.000000       500.000000        zlo zhi
 
 Masses
 
           1   178.080000    
           2   75.0500000    
           3   75.0500000    
           4   55.0500000    
           5   55.0500000    
           6   62.5500000    
           7   62.5500000    
           8   67.0500000    
           9   67.0500000    
 
 Atoms
 
       1          1          1     -1.000      0.385     19.260      9.663
       2          1          2      0.000     -0.401     19.793      5.367
       3          1          3      0.000     -0.598     19.926      4.293
       4          1          1     -1.000     -3.511     16.958      6.507
       5          1          4      0.000     -1.642     17.129      2.527
       6          1          5      0.000     -1.174     17.172      1.533
       7          1          1     -1.000     -5.072     14.537      1.801
       8          1          2      0.000     -1.251     14.271     -0.366
       9          1          3      0.000     -0.296     14.204     -0.907
      10          1          1     -1.000     -3.850     11.763     -2.809
      11          1          6      0.000      0.483     11.148     -2.349
      12          1          7      0.000      1.566     10.994     -2.234
      13          1          1     -1.000     -0.446      8.535     -5.713
      14          1          4      0.000      2.767      7.791     -2.801
      15          1          5      0.000      3.570      7.605     -2.073
      16          1          1     -1.000      3.717      4.922     -5.944
      17          1          8      0.000      4.601      4.317     -1.676
      18          1          9      0.000      4.822      4.166     -0.609
      19          1          1     -1.000      6.933      1.139     -3.539
      20          1          6      0.000      5.154      0.890      0.478
      21          1          7      0.000      4.709      0.827      1.482
      22          1          1     -1.000      7.851     -2.536      0.473
      23          1          8      0.000      4.076     -2.347      2.726
      24          1          9      0.000      3.133     -2.300      3.289
      25          1          1     -1.000      5.985     -5.865      4.457
      26          1          4      0.000      1.633     -5.321      4.098
      27          1          5      0.000      0.545     -5.185      4.008
      28          1          1     -1.000      1.895     -8.740      6.791
      29          1          8      0.000     -1.398     -8.057      3.953
      30          1          9      0.000     -2.221     -7.886      3.244
      31          1          1     -1.000     -3.020    -11.225      6.471
      32          1          2      0.000     -4.017    -10.671      2.222
      33          1          3      0.000     -4.266    -10.532      1.159
      34          1          1     -1.000     -7.053    -13.529      3.494
      35          1          6      0.000     -5.381    -13.324     -0.570
      36          1          7      0.000     -4.963    -13.273     -1.586
      37          1          1     -1.000     -8.828    -15.930     -1.145
      38          1          2      0.000     -5.117    -16.163     -3.496
      39          1          3      0.000     -4.189    -16.221     -4.084
      40          1          1     -1.000     -7.818    -18.671     -5.825
      41          1          4      0.000     -3.465    -19.265     -5.581
      42          1          5      0.000     -2.377    -19.414     -5.520
      43          2          1     -1.000     -1.888     20.801     -2.761
      44          2          4      0.000     -1.102     20.268      1.535
      45          2          5      0.000     -0.906     20.135      2.609
      46          2          1     -1.000      1.895     17.454     -5.001
      47          2          2      0.000      0.026     17.282     -1.022
      48          2          3      0.000     -0.442     17.239     -0.027
      49          2          1     -1.000      5.976     13.767     -4.465
      50          2          4      0.000      2.156     14.034     -2.298
      51          2          5      0.000      1.201     14.100     -1.757
      52          2          1     -1.000      8.679      9.984     -1.479
      53          2          8      0.000      4.347     10.600     -1.939
      54          2          9      0.000      3.264     10.753     -2.054
      55          2          1     -1.000      8.847      6.383      2.708
      56          2          2      0.000      5.633      7.127     -0.204
      57          2          3      0.000      4.830      7.313     -0.932
      58          2          1     -1.000      6.274      3.173      6.398
      59          2          6      0.000      5.390      3.778      2.130
      60          2          7      0.000      5.169      3.929      1.063
      61          2          1     -1.000      1.788      0.418      8.077
      62          2          8      0.000      3.567      0.667      4.060
      63          2          9      0.000      4.012      0.730      3.056
      64          2          1     -1.000     -3.064     -1.991      6.989
      65          2          6      0.000      0.710     -2.179      4.736
      66          2          7      0.000      1.654     -2.226      4.172
      67          2          1     -1.000     -6.599     -4.292      3.419
      68          2          2      0.000     -2.248     -4.836      3.778
      69          2          3      0.000     -1.160     -4.972      3.868
      70          2          1     -1.000     -7.627     -6.764     -1.415
      71          2          6      0.000     -4.334     -7.448      1.423
      72          2          7      0.000     -3.511     -7.618      2.132
      73          2          1     -1.000     -5.903     -9.623     -5.818
      74          2          4      0.000     -4.906    -10.177     -1.569
      75          2          5      0.000     -4.657    -10.315     -0.506
      76          2          1     -1.000     -2.217    -12.936     -8.260
      77          2          8      0.000     -3.889    -13.141     -4.195
      78          2          9      0.000     -4.307    -13.193     -3.179
      79          2          1     -1.000      1.905    -16.603     -7.946
      80          2          4      0.000     -1.806    -16.371     -5.594
      81          2          5      0.000     -2.734    -16.312     -5.006
      82          2          1     -1.000      4.770    -20.389     -5.118
      83          2          2      0.000      0.417    -19.795     -5.363
      84          2          3      0.000     -0.671    -19.646     -5.424
 
 Bonds
 
       1       1       1       2
       2       2       1       4
       3       3       2       3
       4       1       4       5
       5       2       4       7
       6       3       5       6
       7       1       7       8
       8       2       7      10
       9       3       8       9
      10       1      10      11
      11       2      10      13
      12       3      11      12
      13       1      13      14
      14       2      13      16
      15       3      14      15
      16       1      16      17
      17       2      16      19
      18       3      17      18
      19       1      19      20
      20       2      19      22
      21       3      20      21
      22       1      22      23
      23       2      22      25
      24       3      23      24
      25       1      25      26
      26       2      25      28
      27       3      26      27
      28       1      28      29
      29       2      28      31
      30       3      29      30
      31       1      31      32
      32       2      31      34
      33       3      32      33
      34       1      34      35
      35       2      34      37
      36       3      35      36
      37       1      37      38
      38       2      37      40
      39       3      38      39
      40       1      40      41
      41       3      41      42
      42       1      43      44
      43       2      43      46
      44       3      44      45
      45       1      46      47
      46       2      46      49
      47       3      47      48
      48       1      49      50
      49       2      49      52
      50       3      50      51
      51       1      52      53
      52       2      52      55
      53       3      53      54
      54       1      55      56
      55       2      55      58
      56       3      56      57
      57       1      58      59
      58       2      58      61
      59       3      59      60
      60       1      61      62
      61       2      61      64
      62       3      62      63
      63       1      64      65
      64       2      64      67
      65       3      65      66
      66       1      67      68
      67       2      67      70
      68       3      68      69
      69       1      70      71
      70       2      70      73
      71       3      71      72
      72       1      73      74
      73       2      73      76
      74       3      74      75
      75       1      76      77
      76       2      76      79
      77       3      77      78
      78       1      79      80
      79       2      79      82
      80       3      80      81
      81       1      82      83
      82       3      83      84
 
 Angles
 
       1       1       1       2       3
       2       2       1       4       7
       3       1       4       5       6
       4       2       4       7      10
       5       1       7       8       9
       6       2       7      10      13
       7       1      10      11      12
       8       2      10      13      16
       9       1      13      14      15
      10       2      13      16      19
      11       1      16      17      18
      12       2      16      19      22
      13       1      19      20      21
      14       2      19      22      25
      15       1      22      23      24
      16       2      22      25      28
      17       1      25      26      27
      18       2      25      28      31
      19       1      28      29      30
      20       2      28      31      34
      21       1      31      32      33
      22       2      31      34      37
      23       1      34      35      36
      24       2      34      37      40
      25       1      37      38      39
      26       1      40      41      42
      27       1      43      44      45
      28       2      43      46      49
      29       1      46      47      48
      30       2      46      49      52
      31       1      49      50      51
      32       2      49      52      55
      33       1      52      53      54
      34       2      52      55      58
      35       1      55      56      57
      36       2      55      58      61
      37       1      58      59      60
      38       2      58      61      64
      39       1      61      62      63
      40       2      61      64      67
      41       1      64      65      66
      42       2      64      67      70
      43       1      67      68      69
      44       2      67      70      73
      45       1      70      71      72
      46       2      70      73      76
      47       1      73      74      75
      48       2      73      76      79
      49       1      76      77      78
      50       2      76      79      82
      51       1      79      80      81
      52       1      82      83      84
