 LAMMPS data file for 2-bead CG-DNA-model
 
          56   atoms
          54   bonds
          24   angles
 
           5   atom types
           2   bond types
           1   angle types
 
  -500.000000       500.000000        xlo xhi
  -500.000000       500.000000        ylo yhi
  -500.000000       500.000000        zlo zhi
 
 Masses
 
           1   178.080000    
           2   150.100000    
           3   110.100000    
           4   125.100000    
           5   134.100000    
 
 Atoms
 
       1          1          1     -1.000      0.385     19.260      9.663
       2          1          2      0.000     -0.401     19.793      5.367
       3          1          1     -1.000     -3.511     16.958      6.507
       4          1          3      0.000     -1.642     17.129      2.527
       5          1          1     -1.000     -5.072     14.537      1.801
       6          1          2      0.000     -1.251     14.271     -0.366
       7          1          1     -1.000     -3.850     11.763     -2.809
       8          1          4      0.000      0.483     11.148     -2.349
       9          1          1     -1.000     -0.446      8.535     -5.713
      10          1          3      0.000      2.767      7.791     -2.801
      11          1          1     -1.000      3.717      4.922     -5.944
      12          1          5      0.000      4.601      4.317     -1.676
      13          1          1     -1.000      6.933      1.139     -3.539
      14          1          4      0.000      5.154      0.890      0.478
      15          1          1     -1.000      7.851     -2.536      0.473
      16          1          5      0.000      4.076     -2.347      2.726
      17          1          1     -1.000      5.985     -5.865      4.457
      18          1          3      0.000      1.633     -5.321      4.098
      19          1          1     -1.000      1.895     -8.740      6.791
      20          1          5      0.000     -1.398     -8.057      3.953
      21          1          1     -1.000     -3.020    -11.225      6.471
      22          1          2      0.000     -4.017    -10.671      2.222
      23          1          1     -1.000     -7.053    -13.529      3.494
      24          1          4      0.000     -5.381    -13.324     -0.570
      25          1          1     -1.000     -8.828    -15.930     -1.145
      26          1          2      0.000     -5.117    -16.163     -3.496
      27          1          1     -1.000     -7.818    -18.671     -5.825
      28          1          3      0.000     -3.465    -19.265     -5.581
      29          2          1     -1.000     -1.888     20.801     -2.761
      30          2          3      0.000     -1.102     20.268      1.535
      31          2          1     -1.000      1.895     17.454     -5.001
      32          2          2      0.000      0.026     17.282     -1.022
      33          2          1     -1.000      5.976     13.767     -4.465
      34          2          3      0.000      2.156     14.034     -2.298
      35          2          1     -1.000      8.679      9.984     -1.479
      36          2          5      0.000      4.347     10.600     -1.939
      37          2          1     -1.000      8.847      6.383      2.708
      38          2          2      0.000      5.633      7.127     -0.204
      39          2          1     -1.000      6.274      3.173      6.398
      40          2          4      0.000      5.390      3.778      2.130
      41          2          1     -1.000      1.788      0.418      8.077
      42          2          5      0.000      3.567      0.667      4.060
      43          2          1     -1.000     -3.064     -1.991      6.989
      44          2          4      0.000      0.710     -2.179      4.736
      45          2          1     -1.000     -6.599     -4.292      3.419
      46          2          2      0.000     -2.248     -4.836      3.778
      47          2          1     -1.000     -7.627     -6.764     -1.415
      48          2          4      0.000     -4.334     -7.448      1.423
      49          2          1     -1.000     -5.903     -9.623     -5.818
      50          2          3      0.000     -4.906    -10.177     -1.569
      51          2          1     -1.000     -2.217    -12.936     -8.260
      52          2          5      0.000     -3.889    -13.141     -4.195
      53          2          1     -1.000      1.905    -16.603     -7.946
      54          2          3      0.000     -1.806    -16.371     -5.594
      55          2          1     -1.000      4.770    -20.389     -5.118
      56          2          2      0.000      0.417    -19.795     -5.363
 
 Bonds
 
       1       1       1       2
       2       2       1       3
       3       1       3       4
       4       2       3       5
       5       1       5       6
       6       2       5       7
       7       1       7       8
       8       2       7       9
       9       1       9      10
      10       2       9      11
      11       1      11      12
      12       2      11      13
      13       1      13      14
      14       2      13      15
      15       1      15      16
      16       2      15      17
      17       1      17      18
      18       2      17      19
      19       1      19      20
      20       2      19      21
      21       1      21      22
      22       2      21      23
      23       1      23      24
      24       2      23      25
      25       1      25      26
      26       2      25      27
      27       1      27      28
      28       1      29      30
      29       2      29      31
      30       1      31      32
      31       2      31      33
      32       1      33      34
      33       2      33      35
      34       1      35      36
      35       2      35      37
      36       1      37      38
      37       2      37      39
      38       1      39      40
      39       2      39      41
      40       1      41      42
      41       2      41      43
      42       1      43      44
      43       2      43      45
      44       1      45      46
      45       2      45      47
      46       1      47      48
      47       2      47      49
      48       1      49      50
      49       2      49      51
      50       1      51      52
      51       2      51      53
      52       1      53      54
      53       2      53      55
      54       1      55      56
 
 Angles
 
       1       1       1       3       5
       2       1       3       5       7
       3       1       5       7       9
       4       1       7       9      11
       5       1       9      11      13
       6       1      11      13      15
       7       1      13      15      17
       8       1      15      17      19
       9       1      17      19      21
      10       1      19      21      23
      11       1      21      23      25
      12       1      23      25      27
      13       1      29      31      33
      14       1      31      33      35
      15       1      33      35      37
      16       1      35      37      39
      17       1      37      39      41
      18       1      39      41      43
      19       1      41      43      45
      20       1      43      45      47
      21       1      45      47      49
      22       1      47      49      51
      23       1      49      51      53
      24       1      51      53      55
